lammpslib autogenerated data file

64 atoms
1 atom types
128 bonds
1 bond types
384 angles
1 angle types

  0.00000000e+00   1.08600000e+01 xlo xhi
  0.00000000e+00   1.08600000e+01 ylo yhi
  0.00000000e+00   1.08600000e+01 zlo zhi
  0.00000000e+00   0.00000000e+00   0.00000000e+00 xy xz yz

Masses

1 28.0854999928

Atoms # full

1 0 1   0.00000000e+00   0.00000000e+00   0.00000000e+00   0.00000000e+00
2 0 1   0.00000000e+00   1.35750000e+00   1.35750000e+00   1.35750000e+00
3 0 1   0.00000000e+00   2.71500000e+00   2.71500000e+00   0.00000000e+00
4 0 1   0.00000000e+00   4.07250000e+00   4.07250000e+00   1.35750000e+00
5 0 1   0.00000000e+00   2.71500000e+00   0.00000000e+00   2.71500000e+00
6 0 1   0.00000000e+00   4.07250000e+00   1.35750000e+00   4.07250000e+00
7 0 1   0.00000000e+00   0.00000000e+00   2.71500000e+00   2.71500000e+00
8 0 1   0.00000000e+00   1.35750000e+00   4.07250000e+00   4.07250000e+00
9 0 1   0.00000000e+00   5.43000000e+00   0.00000000e+00   0.00000000e+00
10 0 1   0.00000000e+00   6.78750000e+00   1.35750000e+00   1.35750000e+00
11 0 1   0.00000000e+00   8.14500000e+00   2.71500000e+00   0.00000000e+00
12 0 1   0.00000000e+00   9.50250000e+00   4.07250000e+00   1.35750000e+00
13 0 1   0.00000000e+00   8.14500000e+00   0.00000000e+00   2.71500000e+00
14 0 1   0.00000000e+00   9.50250000e+00   1.35750000e+00   4.07250000e+00
15 0 1   0.00000000e+00   5.43000000e+00   2.71500000e+00   2.71500000e+00
16 0 1   0.00000000e+00   6.78750000e+00   4.07250000e+00   4.07250000e+00
17 0 1   0.00000000e+00   0.00000000e+00   5.43000000e+00   0.00000000e+00
18 0 1   0.00000000e+00   1.35750000e+00   6.78750000e+00   1.35750000e+00
19 0 1   0.00000000e+00   2.71500000e+00   8.14500000e+00   0.00000000e+00
20 0 1   0.00000000e+00   4.07250000e+00   9.50250000e+00   1.35750000e+00
21 0 1   0.00000000e+00   2.71500000e+00   5.43000000e+00   2.71500000e+00
22 0 1   0.00000000e+00   4.07250000e+00   6.78750000e+00   4.07250000e+00
23 0 1   0.00000000e+00   0.00000000e+00   8.14500000e+00   2.71500000e+00
24 0 1   0.00000000e+00   1.35750000e+00   9.50250000e+00   4.07250000e+00
25 0 1   0.00000000e+00   5.43000000e+00   5.43000000e+00   0.00000000e+00
26 0 1   0.00000000e+00   6.78750000e+00   6.78750000e+00   1.35750000e+00
27 0 1   0.00000000e+00   8.14500000e+00   8.14500000e+00   0.00000000e+00
28 0 1   0.00000000e+00   9.50250000e+00   9.50250000e+00   1.35750000e+00
29 0 1   0.00000000e+00   8.14500000e+00   5.43000000e+00   2.71500000e+00
30 0 1   0.00000000e+00   9.50250000e+00   6.78750000e+00   4.07250000e+00
31 0 1   0.00000000e+00   5.43000000e+00   8.14500000e+00   2.71500000e+00
32 0 1   0.00000000e+00   6.78750000e+00   9.50250000e+00   4.07250000e+00
33 0 1   0.00000000e+00   0.00000000e+00   0.00000000e+00   5.43000000e+00
34 0 1   0.00000000e+00   1.35750000e+00   1.35750000e+00   6.78750000e+00
35 0 1   0.00000000e+00   2.71500000e+00   2.71500000e+00   5.43000000e+00
36 0 1   0.00000000e+00   4.07250000e+00   4.07250000e+00   6.78750000e+00
37 0 1   0.00000000e+00   2.71500000e+00   0.00000000e+00   8.14500000e+00
38 0 1   0.00000000e+00   4.07250000e+00   1.35750000e+00   9.50250000e+00
39 0 1   0.00000000e+00   0.00000000e+00   2.71500000e+00   8.14500000e+00
40 0 1   0.00000000e+00   1.35750000e+00   4.07250000e+00   9.50250000e+00
41 0 1   0.00000000e+00   5.43000000e+00   0.00000000e+00   5.43000000e+00
42 0 1   0.00000000e+00   6.78750000e+00   1.35750000e+00   6.78750000e+00
43 0 1   0.00000000e+00   8.14500000e+00   2.71500000e+00   5.43000000e+00
44 0 1   0.00000000e+00   9.50250000e+00   4.07250000e+00   6.78750000e+00
45 0 1   0.00000000e+00   8.14500000e+00   0.00000000e+00   8.14500000e+00
46 0 1   0.00000000e+00   9.50250000e+00   1.35750000e+00   9.50250000e+00
47 0 1   0.00000000e+00   5.43000000e+00   2.71500000e+00   8.14500000e+00
48 0 1   0.00000000e+00   6.78750000e+00   4.07250000e+00   9.50250000e+00
49 0 1   0.00000000e+00   0.00000000e+00   5.43000000e+00   5.43000000e+00
50 0 1   0.00000000e+00   1.35750000e+00   6.78750000e+00   6.78750000e+00
51 0 1   0.00000000e+00   2.71500000e+00   8.14500000e+00   5.43000000e+00
52 0 1   0.00000000e+00   4.07250000e+00   9.50250000e+00   6.78750000e+00
53 0 1   0.00000000e+00   2.71500000e+00   5.43000000e+00   8.14500000e+00
54 0 1   0.00000000e+00   4.07250000e+00   6.78750000e+00   9.50250000e+00
55 0 1   0.00000000e+00   0.00000000e+00   8.14500000e+00   8.14500000e+00
56 0 1   0.00000000e+00   1.35750000e+00   9.50250000e+00   9.50250000e+00
57 0 1   0.00000000e+00   5.43000000e+00   5.43000000e+00   5.43000000e+00
58 0 1   0.00000000e+00   6.78750000e+00   6.78750000e+00   6.78750000e+00
59 0 1   0.00000000e+00   8.14500000e+00   8.14500000e+00   5.43000000e+00
60 0 1   0.00000000e+00   9.50250000e+00   9.50250000e+00   6.78750000e+00
61 0 1   0.00000000e+00   8.14500000e+00   5.43000000e+00   8.14500000e+00
62 0 1   0.00000000e+00   9.50250000e+00   6.78750000e+00   9.50250000e+00
63 0 1   0.00000000e+00   5.43000000e+00   8.14500000e+00   8.14500000e+00
64 0 1   0.00000000e+00   6.78750000e+00   9.50250000e+00   9.50250000e+00

Bonds

1 1 1 2
2 1 1 28
3 1 1 46
4 1 1 56
5 1 2 3
6 1 2 5
7 1 2 7
8 1 3 4
9 1 3 38
10 1 3 40
11 1 4 15
12 1 4 21
13 1 4 25
14 1 5 6
15 1 5 20
16 1 5 24
17 1 6 15
18 1 6 35
19 1 6 41
20 1 7 8
21 1 7 12
22 1 7 14
23 1 8 21
24 1 8 35
25 1 8 49
26 1 9 10
27 1 9 20
28 1 9 38
29 1 9 64
30 1 10 11
31 1 10 13
32 1 10 15
33 1 11 12
34 1 11 46
35 1 11 48
36 1 12 29
37 1 12 17
38 1 13 14
39 1 13 28
40 1 13 32
41 1 14 43
42 1 14 33
43 1 15 16
44 1 16 29
45 1 16 43
46 1 16 57
47 1 17 18
48 1 17 40
49 1 17 62
50 1 18 19
51 1 18 21
52 1 18 23
53 1 19 20
54 1 19 54
55 1 19 56
56 1 20 31
57 1 21 22
58 1 22 31
59 1 22 51
60 1 22 57
61 1 23 24
62 1 23 28
63 1 23 30
64 1 24 51
65 1 24 33
66 1 25 26
67 1 25 48
68 1 25 54
69 1 26 27
70 1 26 29
71 1 26 31
72 1 27 28
73 1 27 62
74 1 27 64
75 1 29 30
76 1 30 59
77 1 30 49
78 1 31 32
79 1 32 59
80 1 32 41
81 1 33 34
82 1 33 60
83 1 34 35
84 1 34 37
85 1 34 39
86 1 35 36
87 1 36 47
88 1 36 53
89 1 36 57
90 1 37 38
91 1 37 52
92 1 37 56
93 1 38 47
94 1 39 40
95 1 39 44
96 1 39 46
97 1 40 53
98 1 41 42
99 1 41 52
100 1 42 43
101 1 42 45
102 1 42 47
103 1 43 44
104 1 44 61
105 1 44 49
106 1 45 46
107 1 45 60
108 1 45 64
109 1 47 48
110 1 48 61
111 1 49 50
112 1 50 51
113 1 50 53
114 1 50 55
115 1 51 52
116 1 52 63
117 1 53 54
118 1 54 63
119 1 55 56
120 1 55 60
121 1 55 62
122 1 57 58
123 1 58 59
124 1 58 61
125 1 58 63
126 1 59 60
127 1 61 62
128 1 63 64

Angles

1 1 2 1 28
2 1 2 1 46
3 1 2 1 56
4 1 28 1 46
5 1 28 1 56
6 1 46 1 56
7 1 3 2 5
8 1 3 2 7
9 1 5 2 7
10 1 1 2 3
11 1 1 2 5
12 1 1 2 7
13 1 4 3 38
14 1 4 3 40
15 1 2 3 4
16 1 2 3 38
17 1 2 3 40
18 1 38 3 40
19 1 15 4 21
20 1 15 4 25
21 1 21 4 25
22 1 3 4 15
23 1 3 4 21
24 1 3 4 25
25 1 6 5 20
26 1 6 5 24
27 1 2 5 6
28 1 2 5 20
29 1 2 5 24
30 1 20 5 24
31 1 15 6 35
32 1 15 6 41
33 1 35 6 41
34 1 5 6 15
35 1 5 6 35
36 1 5 6 41
37 1 8 7 12
38 1 8 7 14
39 1 2 7 8
40 1 2 7 12
41 1 2 7 14
42 1 12 7 14
43 1 21 8 35
44 1 21 8 49
45 1 35 8 49
46 1 7 8 21
47 1 7 8 35
48 1 7 8 49
49 1 10 9 20
50 1 10 9 38
51 1 10 9 64
52 1 20 9 38
53 1 20 9 64
54 1 38 9 64
55 1 11 10 13
56 1 11 10 15
57 1 13 10 15
58 1 9 10 11
59 1 9 10 13
60 1 9 10 15
61 1 12 11 46
62 1 12 11 48
63 1 10 11 12
64 1 10 11 46
65 1 10 11 48
66 1 46 11 48
67 1 7 12 29
68 1 7 12 17
69 1 7 12 11
70 1 17 12 29
71 1 11 12 29
72 1 11 12 17
73 1 14 13 28
74 1 14 13 32
75 1 10 13 14
76 1 10 13 28
77 1 10 13 32
78 1 28 13 32
79 1 7 14 43
80 1 7 14 33
81 1 7 14 13
82 1 33 14 43
83 1 13 14 43
84 1 13 14 33
85 1 4 15 16
86 1 4 15 6
87 1 4 15 10
88 1 6 15 16
89 1 6 15 10
90 1 10 15 16
91 1 29 16 43
92 1 29 16 57
93 1 43 16 57
94 1 15 16 29
95 1 15 16 43
96 1 15 16 57
97 1 18 17 40
98 1 18 17 62
99 1 12 17 18
100 1 12 17 40
101 1 12 17 62
102 1 40 17 62
103 1 19 18 21
104 1 19 18 23
105 1 21 18 23
106 1 17 18 19
107 1 17 18 21
108 1 17 18 23
109 1 20 19 54
110 1 20 19 56
111 1 18 19 20
112 1 18 19 54
113 1 18 19 56
114 1 54 19 56
115 1 5 20 31
116 1 5 20 9
117 1 5 20 19
118 1 9 20 31
119 1 9 20 19
120 1 19 20 31
121 1 4 21 22
122 1 4 21 8
123 1 4 21 18
124 1 8 21 22
125 1 8 21 18
126 1 18 21 22
127 1 31 22 51
128 1 31 22 57
129 1 51 22 57
130 1 21 22 31
131 1 21 22 51
132 1 21 22 57
133 1 24 23 28
134 1 24 23 30
135 1 18 23 24
136 1 18 23 28
137 1 18 23 30
138 1 28 23 30
139 1 5 24 51
140 1 5 24 33
141 1 5 24 23
142 1 33 24 51
143 1 23 24 51
144 1 23 24 33
145 1 26 25 48
146 1 26 25 54
147 1 4 25 26
148 1 4 25 48
149 1 4 25 54
150 1 48 25 54
151 1 27 26 29
152 1 27 26 31
153 1 29 26 31
154 1 25 26 27
155 1 25 26 29
156 1 25 26 31
157 1 28 27 62
158 1 28 27 64
159 1 26 27 28
160 1 26 27 62
161 1 26 27 64
162 1 62 27 64
163 1 13 28 23
164 1 13 28 27
165 1 23 28 27
166 1 1 28 13
167 1 1 28 23
168 1 1 28 27
169 1 12 29 30
170 1 12 29 16
171 1 12 29 26
172 1 16 29 30
173 1 16 29 26
174 1 26 29 30
175 1 23 30 59
176 1 23 30 49
177 1 23 30 29
178 1 49 30 59
179 1 29 30 59
180 1 29 30 49
181 1 20 31 32
182 1 20 31 22
183 1 20 31 26
184 1 22 31 32
185 1 22 31 26
186 1 26 31 32
187 1 13 32 59
188 1 13 32 41
189 1 13 32 31
190 1 41 32 59
191 1 31 32 59
192 1 31 32 41
193 1 34 33 60
194 1 14 33 34
195 1 14 33 24
196 1 14 33 60
197 1 24 33 34
198 1 24 33 60
199 1 35 34 37
200 1 35 34 39
201 1 37 34 39
202 1 33 34 35
203 1 33 34 37
204 1 33 34 39
205 1 6 35 36
206 1 6 35 8
207 1 6 35 34
208 1 8 35 36
209 1 8 35 34
210 1 34 35 36
211 1 47 36 53
212 1 47 36 57
213 1 53 36 57
214 1 35 36 47
215 1 35 36 53
216 1 35 36 57
217 1 38 37 52
218 1 38 37 56
219 1 34 37 38
220 1 34 37 52
221 1 34 37 56
222 1 52 37 56
223 1 3 38 47
224 1 3 38 9
225 1 3 38 37
226 1 9 38 47
227 1 9 38 37
228 1 37 38 47
229 1 40 39 44
230 1 40 39 46
231 1 34 39 40
232 1 34 39 44
233 1 34 39 46
234 1 44 39 46
235 1 3 40 53
236 1 3 40 17
237 1 3 40 39
238 1 17 40 53
239 1 17 40 39
240 1 39 40 53
241 1 42 41 52
242 1 6 41 42
243 1 6 41 32
244 1 6 41 52
245 1 32 41 42
246 1 32 41 52
247 1 43 42 45
248 1 43 42 47
249 1 45 42 47
250 1 41 42 43
251 1 41 42 45
252 1 41 42 47
253 1 14 43 44
254 1 14 43 16
255 1 14 43 42
256 1 16 43 44
257 1 16 43 42
258 1 42 43 44
259 1 39 44 61
260 1 39 44 49
261 1 39 44 43
262 1 49 44 61
263 1 43 44 61
264 1 43 44 49
265 1 46 45 60
266 1 46 45 64
267 1 42 45 46
268 1 42 45 60
269 1 42 45 64
270 1 60 45 64
271 1 11 46 39
272 1 11 46 45
273 1 39 46 45
274 1 1 46 11
275 1 1 46 39
276 1 1 46 45
277 1 36 47 48
278 1 36 47 38
279 1 36 47 42
280 1 38 47 48
281 1 38 47 42
282 1 42 47 48
283 1 11 48 61
284 1 11 48 25
285 1 11 48 47
286 1 25 48 61
287 1 25 48 47
288 1 47 48 61
289 1 8 49 50
290 1 8 49 30
291 1 8 49 44
292 1 30 49 50
293 1 30 49 44
294 1 44 49 50
295 1 51 50 53
296 1 51 50 55
297 1 53 50 55
298 1 49 50 51
299 1 49 50 53
300 1 49 50 55
301 1 22 51 52
302 1 22 51 24
303 1 22 51 50
304 1 24 51 52
305 1 24 51 50
306 1 50 51 52
307 1 37 52 63
308 1 37 52 41
309 1 37 52 51
310 1 41 52 63
311 1 41 52 51
312 1 51 52 63
313 1 36 53 54
314 1 36 53 40
315 1 36 53 50
316 1 40 53 54
317 1 40 53 50
318 1 50 53 54
319 1 19 54 63
320 1 19 54 25
321 1 19 54 53
322 1 25 54 63
323 1 25 54 53
324 1 53 54 63
325 1 56 55 60
326 1 56 55 62
327 1 50 55 56
328 1 50 55 60
329 1 50 55 62
330 1 60 55 62
331 1 19 56 37
332 1 19 56 55
333 1 37 56 55
334 1 1 56 19
335 1 1 56 37
336 1 1 56 55
337 1 16 57 58
338 1 16 57 22
339 1 16 57 36
340 1 22 57 58
341 1 22 57 36
342 1 36 57 58
343 1 59 58 61
344 1 59 58 63
345 1 61 58 63
346 1 57 58 59
347 1 57 58 61
348 1 57 58 63
349 1 30 59 60
350 1 30 59 32
351 1 30 59 58
352 1 32 59 60
353 1 32 59 58
354 1 58 59 60
355 1 45 60 55
356 1 45 60 59
357 1 55 60 59
358 1 33 60 45
359 1 33 60 55
360 1 33 60 59
361 1 44 61 62
362 1 44 61 48
363 1 44 61 58
364 1 48 61 62
365 1 48 61 58
366 1 58 61 62
367 1 27 62 55
368 1 27 62 61
369 1 55 62 61
370 1 17 62 27
371 1 17 62 55
372 1 17 62 61
373 1 52 63 64
374 1 52 63 54
375 1 52 63 58
376 1 54 63 64
377 1 54 63 58
378 1 58 63 64
379 1 27 64 45
380 1 27 64 63
381 1 45 64 63
382 1 9 64 27
383 1 9 64 45
384 1 9 64 63
